 Entering Gaussian System, Link 0=g16
 Input=01.inp
 Output=01.log
 Initial command:
 /home/zouwl/Chemsoft/Gaussian/g16/l1.exe "/tmp/zouwl/GaussianScr/Gau-5888.inp" -scrdir="/tmp/zouwl/GaussianScr/"
 Entering Link 1 = /home/zouwl/Chemsoft/Gaussian/g16/l1.exe PID=      5889.
  
 Copyright (c) 1988-2019, Gaussian, Inc.  All Rights Reserved.
  
 This is part of the Gaussian(R) 16 program.  It is based on
 the Gaussian(R) 09 system (copyright 2009, Gaussian, Inc.),
 the Gaussian(R) 03 system (copyright 2003, Gaussian, Inc.),
 the Gaussian(R) 98 system (copyright 1998, Gaussian, Inc.),
 the Gaussian(R) 94 system (copyright 1995, Gaussian, Inc.),
 the Gaussian 92(TM) system (copyright 1992, Gaussian, Inc.),
 the Gaussian 90(TM) system (copyright 1990, Gaussian, Inc.),
 the Gaussian 88(TM) system (copyright 1988, Gaussian, Inc.),
 the Gaussian 86(TM) system (copyright 1986, Carnegie Mellon
 University), and the Gaussian 82(TM) system (copyright 1983,
 Carnegie Mellon University). Gaussian is a federally registered
 trademark of Gaussian, Inc.
  
 This software contains proprietary and confidential information,
 including trade secrets, belonging to Gaussian, Inc.
  
 This software is provided under written license and may be
 used, copied, transmitted, or stored only in accord with that
 written license.
  
 The following legend is applicable only to US Government
 contracts under FAR:
  
                    RESTRICTED RIGHTS LEGEND
  
 Use, reproduction and disclosure by the US Government is
 subject to restrictions as set forth in subparagraphs (a)
 and (c) of the Commercial Computer Software - Restricted
 Rights clause in FAR 52.227-19.
  
 Gaussian, Inc.
 340 Quinnipiac St., Bldg. 40, Wallingford CT 06492
  
  
 ---------------------------------------------------------------
 Warning -- This program may not be used in any manner that
 competes with the business of Gaussian, Inc. or will provide
 assistance to any competitor of Gaussian, Inc.  The licensee
 of this program is prohibited from giving any competitor of
 Gaussian, Inc. access to this program.  By using this program,
 the user acknowledges that Gaussian, Inc. is engaged in the
 business of creating and licensing software in the field of
 computational chemistry and represents and warrants to the
 licensee that it is not a competitor of Gaussian, Inc. and that
 it will not use this program in any manner prohibited above.
 ---------------------------------------------------------------
  

 Cite this work as:
 Gaussian 16, Revision C.01,
 M. J. Frisch, G. W. Trucks, H. B. Schlegel, G. E. Scuseria, 
 M. A. Robb, J. R. Cheeseman, G. Scalmani, V. Barone, 
 G. A. Petersson, H. Nakatsuji, X. Li, M. Caricato, A. V. Marenich, 
 J. Bloino, B. G. Janesko, R. Gomperts, B. Mennucci, H. P. Hratchian, 
 J. V. Ortiz, A. F. Izmaylov, J. L. Sonnenberg, D. Williams-Young, 
 F. Ding, F. Lipparini, F. Egidi, J. Goings, B. Peng, A. Petrone, 
 T. Henderson, D. Ranasinghe, V. G. Zakrzewski, J. Gao, N. Rega, 
 G. Zheng, W. Liang, M. Hada, M. Ehara, K. Toyota, R. Fukuda, 
 J. Hasegawa, M. Ishida, T. Nakajima, Y. Honda, O. Kitao, H. Nakai, 
 T. Vreven, K. Throssell, J. A. Montgomery, Jr., J. E. Peralta, 
 F. Ogliaro, M. J. Bearpark, J. J. Heyd, E. N. Brothers, K. N. Kudin, 
 V. N. Staroverov, T. A. Keith, R. Kobayashi, J. Normand, 
 K. Raghavachari, A. P. Rendell, J. C. Burant, S. S. Iyengar, 
 J. Tomasi, M. Cossi, J. M. Millam, M. Klene, C. Adamo, R. Cammi, 
 J. W. Ochterski, R. L. Martin, K. Morokuma, O. Farkas, 
 J. B. Foresman, and D. J. Fox, Gaussian, Inc., Wallingford CT, 2019.
 
 ******************************************
 Gaussian 16:  ES64L-G16RevC.01  3-Jul-2019
                12-Dec-2022 
 ******************************************
 %nprocshared=1
 Will use up to    1 processors via shared memory.
 %mem=1gb
 --------------------------------------------------------
 #p external='MultiState/run-2state.sh' opt(nomicro) freq
 --------------------------------------------------------
 1/18=20,19=15,26=1,38=1/1,3;
 2/9=110,12=2,17=6,18=5,40=1/2;
 3/11=9,25=1,30=1,41=9900000,43=2,71=1/1;
 4/20=17,22=1,24=3,113=1,114=1/2;
 6/7=2,8=2,9=2,10=2/1;
 7/44=-1/16;
 1/18=20,19=15,26=1/3(2);
 2/9=110/2;
 99//99;
 2/9=110/2;
 3/11=9,25=1,30=1,41=9900000,43=2,71=1/1;
 4/16=2,20=17,22=1,24=3,113=1,114=1/2;
 7/44=-1/16;
 1/18=20,19=15,26=1/3(-4);
 2/9=110/2;
 6/7=2,8=2,9=2,10=2/1;
 99/9=10/99;
 Leave Link    1 at Mon Dec 12 09:56:38 2022, MaxMem=   134217728 cpu:               0.0 elap:               0.0
 (Enter /home/zouwl/Chemsoft/Gaussian/g16/l101.exe)
 ------------------------------------
 Two-State calculation (DO SP FIRST.)
 ------------------------------------
 Symbolic Z-matrix:
 Charge =  0 Multiplicity = 1
 O
 O                    1    r1
       Variables:
  r1                    1.2                      
 
 ITRead=  0  0
 MicOpt= -1 -1
 NAtoms=      2 NQM=        2 NQMF=       0 NMMI=      0 NMMIF=      0
                NMic=       0 NMicF=      0.
                    Isotopes and Nuclear Properties:
 (Nuclear quadrupole moments (NQMom) in fm**2, nuclear magnetic moments (NMagM)
  in nuclear magnetons)

  Atom         1           2
 IAtWgt=          16          16
 AtmWgt=  15.9949146  15.9949146
 NucSpn=           0           0
 AtZEff=  -0.0000000  -0.0000000
 NQMom=    0.0000000   0.0000000
 NMagM=    0.0000000   0.0000000
 AtZNuc=   8.0000000   8.0000000
 Leave Link  101 at Mon Dec 12 09:56:39 2022, MaxMem=   134217728 cpu:               0.1 elap:               1.1
 (Enter /home/zouwl/Chemsoft/Gaussian/g16/l103.exe)

 GradGradGradGradGradGradGradGradGradGradGradGradGradGradGradGradGradGrad
 Berny optimization.
 Initialization pass.
                           ----------------------------
                           !    Initial Parameters    !
                           ! (Angstroms and Degrees)  !
 --------------------------                            --------------------------
 ! Name  Definition              Value          Derivative Info.                !
 --------------------------------------------------------------------------------
 ! R1    R(1,2)                  1.2            estimate D2E/DX2                !
 --------------------------------------------------------------------------------
 Trust Radius=3.00D-01 FncErr=1.00D-07 GrdErr=1.00D-07 EigMax=2.50D+02 EigMin=1.00D-04
 Number of steps in this run=     20 maximum allowed number of steps=    100.
 GradGradGradGradGradGradGradGradGradGradGradGradGradGradGradGradGradGrad

 Leave Link  103 at Mon Dec 12 09:56:40 2022, MaxMem=   134217728 cpu:               0.0 elap:               1.0
 (Enter /home/zouwl/Chemsoft/Gaussian/g16/l202.exe)
                          Input orientation:                          
 ---------------------------------------------------------------------
 Center     Atomic      Atomic             Coordinates (Angstroms)
 Number     Number       Type             X           Y           Z
 ---------------------------------------------------------------------
      1          8           0        0.000000    0.000000    0.000000
      2          8           0        0.000000    0.000000    1.200000
 ---------------------------------------------------------------------
 Stoichiometry    O2
 Framework group  D*H[C*(O.O)]
 Deg. of freedom     1
 Full point group                 D*H     NOp   8
 Largest Abelian subgroup         D2H     NOp   8
 Largest concise Abelian subgroup C2      NOp   2
                         Standard orientation:                         
 ---------------------------------------------------------------------
 Center     Atomic      Atomic             Coordinates (Angstroms)
 Number     Number       Type             X           Y           Z
 ---------------------------------------------------------------------
      1          8           0        0.000000    0.000000    0.600000
      2          8           0        0.000000    0.000000   -0.600000
 ---------------------------------------------------------------------
 Rotational constants (GHZ):           0.0000000          43.8836534          43.8836534
 Leave Link  202 at Mon Dec 12 09:56:41 2022, MaxMem=   134217728 cpu:               0.0 elap:               1.0
 (Enter /home/zouwl/Chemsoft/Gaussian/g16/l301.exe)
 Standard basis: STO-3G (5D, 7F)
 Ernie: Thresh=  0.10000D-02 Tol=  0.10000D-05 Strict=F.
 There are     3 symmetry adapted cartesian basis functions of AG  symmetry.
 There are     0 symmetry adapted cartesian basis functions of B1G symmetry.
 There are     1 symmetry adapted cartesian basis functions of B2G symmetry.
 There are     1 symmetry adapted cartesian basis functions of B3G symmetry.
 There are     0 symmetry adapted cartesian basis functions of AU  symmetry.
 There are     3 symmetry adapted cartesian basis functions of B1U symmetry.
 There are     1 symmetry adapted cartesian basis functions of B2U symmetry.
 There are     1 symmetry adapted cartesian basis functions of B3U symmetry.
 There are     3 symmetry adapted basis functions of AG  symmetry.
 There are     0 symmetry adapted basis functions of B1G symmetry.
 There are     1 symmetry adapted basis functions of B2G symmetry.
 There are     1 symmetry adapted basis functions of B3G symmetry.
 There are     0 symmetry adapted basis functions of AU  symmetry.
 There are     3 symmetry adapted basis functions of B1U symmetry.
 There are     1 symmetry adapted basis functions of B2U symmetry.
 There are     1 symmetry adapted basis functions of B3U symmetry.
    10 basis functions,    30 primitive gaussians,    10 cartesian basis functions
     8 alpha electrons        8 beta electrons
       nuclear repulsion energy        28.2227845824 Hartrees.
 IExCor=    0 DFT=F Ex=HF Corr=None ExCW=0 ScaHFX=  1.000000
 ScaDFX=  1.000000  1.000000  1.000000  1.000000 ScalE2=  1.000000  1.000000
 IRadAn=      5 IRanWt=     -1 IRanGd=            0 ICorTp=0 IEmpDi=  4
 NAtoms=    2 NActive=    2 NUniq=    1 SFac= 4.00D+00 NAtFMM=   60 NAOKFM=F Big=F
 Integral buffers will be    131072 words long.
 Raffenetti 1 integral format.
 Two-electron integral symmetry is turned on.
 Leave Link  301 at Mon Dec 12 09:56:42 2022, MaxMem=   134217728 cpu:               0.1 elap:               1.1
 (Enter /home/zouwl/Chemsoft/Gaussian/g16/l402.exe)
 External calculation of energy and first derivatives.
 Running external command "MultiState/run-2state.sh R"
         input file       "/tmp/zouwl/GaussianScr/Gau-5889.EIn"
         output file      "/tmp/zouwl/GaussianScr/Gau-5889.EOu"
         message file     "/tmp/zouwl/GaussianScr/Gau-5889.EMs"
         fchk file        "/tmp/zouwl/GaussianScr/Gau-5889.EFC"
         mat. el file     "/tmp/zouwl/GaussianScr/Gau-5889.EUF"
 ================================
 Multiple-State Spin-Mixing Model
 ================================
 Number of spin states:  2
 chi (in cm^-1): 
       400.0
 Energies of spin states:
 -----------------------------------------------
 No.              E(calc.)            E(shifted)
 -----------------------------------------------
   1        -149.405838776        -149.405838776
   2        -149.467730812        -149.467730812
 -----------------------------------------------
 Energies and weights of mixed-spin states:
 ------------------------------------------------------------------
 No.                E(mix)           Weights
 ------------------------------------------------------------------
   1        -149.467784434          0.1%    99.9%
   2        -149.405785154         99.9%     0.1%
 ------------------------------------------------------------------
 Recovered energy= -149.467784434     dipole=      0.000000000000      0.000000000000      0.000000000000
 Energy=    -149.467784     NIter=   0.
 Dipole moment=       0.000000       0.000000       0.000000
 Leave Link  402 at Mon Dec 12 09:57:28 2022, MaxMem=   134217728 cpu:               0.0 elap:              45.8
 (Enter /home/zouwl/Chemsoft/Gaussian/g16/l601.exe)
 Leave Link  601 at Mon Dec 12 09:57:29 2022, MaxMem=   134217728 cpu:               0.0 elap:               1.1
 (Enter /home/zouwl/Chemsoft/Gaussian/g16/l716.exe)
 Dipole        = 0.00000000D+00 0.00000000D+00 0.00000000D+00
 ***** Axes restored to original set *****
 -------------------------------------------------------------------
 Center     Atomic                   Forces (Hartrees/Bohr)
 Number     Number              X              Y              Z
 -------------------------------------------------------------------
      1        8           0.000000000   -0.000000000   -0.141361572
      2        8          -0.000000000    0.000000000    0.141361572
 -------------------------------------------------------------------
 Cartesian Forces:  Max     0.141361572 RMS     0.081615142
 Leave Link  716 at Mon Dec 12 09:57:30 2022, MaxMem=   134217728 cpu:               0.0 elap:               1.0
 (Enter /home/zouwl/Chemsoft/Gaussian/g16/l103.exe)

 GradGradGradGradGradGradGradGradGradGradGradGradGradGradGradGradGradGrad
 Berny optimization.
 FormGI is forming the generalized inverse of G from B-inverse, IUseBI=4.
 Internal  Forces:  Max     0.141361572 RMS     0.141361572
 Search for a local minimum.
 Step number   1 out of a maximum of   20
 All quantities printed in internal units (Hartrees-Bohrs-Radians)
 RMS Force = .14136D+00 SwitMx=.10000D-02 MixMth= 1
 Mixed Optimization -- RFO/linear search
 Second derivative matrix not updated -- first step.
 The second derivative matrix:
                          R1
           R1           1.04823
 ITU=  0
     Eigenvalues ---    1.04823
 RFO step:  Lambda=-1.87290059D-02 EMin= 1.04823068D+00
 Linear search not attempted -- first point.
 Iteration  1 RMS(Cart)=  0.09368463 RMS(Int)=  0.00000000
 Iteration  2 RMS(Cart)=  0.00000000 RMS(Int)=  0.00000000
 ITry= 1 IFail=0 DXMaxC= 6.62D-02 DCOld= 1.00D+10 DXMaxT= 3.00D-01 DXLimC= 3.00D+00 Rises=F
 ClnCor:  largest displacement from symmetrization is 4.06D-18 for atom     2.
 Variable       Old X    -DE/DX   Delta X   Delta X   Delta X     New X
                                 (Linear)    (Quad)   (Total)
    R1        2.26767   0.14136   0.00000   0.13249   0.13249   2.40016
         Item               Value     Threshold  Converged?
 Maximum Force            0.141362     0.000450     NO 
 RMS     Force            0.141362     0.000300     NO 
 Maximum Displacement     0.066245     0.001800     NO 
 RMS     Displacement     0.093685     0.001200     NO 
 Predicted change in Energy=-9.528884D-03
 GradGradGradGradGradGradGradGradGradGradGradGradGradGradGradGradGradGrad

 Leave Link  103 at Mon Dec 12 09:57:30 2022, MaxMem=   134217728 cpu:               0.0 elap:               0.0
 (Enter /home/zouwl/Chemsoft/Gaussian/g16/l202.exe)
                          Input orientation:                          
 ---------------------------------------------------------------------
 Center     Atomic      Atomic             Coordinates (Angstroms)
 Number     Number       Type             X           Y           Z
 ---------------------------------------------------------------------
      1          8           0        0.000000    0.000000   -0.035055
      2          8           0        0.000000    0.000000    1.235055
 ---------------------------------------------------------------------
 Stoichiometry    O2
 Framework group  D*H[C*(O.O)]
 Deg. of freedom     1
 Full point group                 D*H     NOp   8
 RotChk:  IX=0 Diff= 0.00D+00
 Largest Abelian subgroup         D2H     NOp   8
 Largest concise Abelian subgroup C2      NOp   2
                         Standard orientation:                         
 ---------------------------------------------------------------------
 Center     Atomic      Atomic             Coordinates (Angstroms)
 Number     Number       Type             X           Y           Z
 ---------------------------------------------------------------------
      1          8           0        0.000000    0.000000    0.635055
      2          8           0        0.000000    0.000000   -0.635055
 ---------------------------------------------------------------------
 Rotational constants (GHZ):           0.0000000          39.1725730          39.1725730
 Leave Link  202 at Mon Dec 12 09:57:31 2022, MaxMem=   134217728 cpu:               0.0 elap:               1.0
 (Enter /home/zouwl/Chemsoft/Gaussian/g16/l301.exe)
 Standard basis: STO-3G (5D, 7F)
 Ernie: Thresh=  0.10000D-02 Tol=  0.10000D-05 Strict=F.
 There are     3 symmetry adapted cartesian basis functions of AG  symmetry.
 There are     0 symmetry adapted cartesian basis functions of B1G symmetry.
 There are     1 symmetry adapted cartesian basis functions of B2G symmetry.
 There are     1 symmetry adapted cartesian basis functions of B3G symmetry.
 There are     0 symmetry adapted cartesian basis functions of AU  symmetry.
 There are     3 symmetry adapted cartesian basis functions of B1U symmetry.
 There are     1 symmetry adapted cartesian basis functions of B2U symmetry.
 There are     1 symmetry adapted cartesian basis functions of B3U symmetry.
 There are     3 symmetry adapted basis functions of AG  symmetry.
 There are     0 symmetry adapted basis functions of B1G symmetry.
 There are     1 symmetry adapted basis functions of B2G symmetry.
 There are     1 symmetry adapted basis functions of B3G symmetry.
 There are     0 symmetry adapted basis functions of AU  symmetry.
 There are     3 symmetry adapted basis functions of B1U symmetry.
 There are     1 symmetry adapted basis functions of B2U symmetry.
 There are     1 symmetry adapted basis functions of B3U symmetry.
    10 basis functions,    30 primitive gaussians,    10 cartesian basis functions
     8 alpha electrons        8 beta electrons
       nuclear repulsion energy        26.6648731385 Hartrees.
 IExCor=    0 DFT=F Ex=HF Corr=None ExCW=0 ScaHFX=  1.000000
 ScaDFX=  1.000000  1.000000  1.000000  1.000000 ScalE2=  1.000000  1.000000
 IRadAn=      5 IRanWt=     -1 IRanGd=            0 ICorTp=0 IEmpDi=  4
 NAtoms=    2 NActive=    2 NUniq=    1 SFac= 4.00D+00 NAtFMM=   60 NAOKFM=F Big=F
 Integral buffers will be    131072 words long.
 Raffenetti 1 integral format.
 Two-electron integral symmetry is turned on.
 Leave Link  301 at Mon Dec 12 09:57:31 2022, MaxMem=   134217728 cpu:               0.1 elap:               0.1
 (Enter /home/zouwl/Chemsoft/Gaussian/g16/l402.exe)
 External calculation of energy and first derivatives.
 Running external command "MultiState/run-2state.sh R"
         input file       "/tmp/zouwl/GaussianScr/Gau-5889.EIn"
         output file      "/tmp/zouwl/GaussianScr/Gau-5889.EOu"
         message file     "/tmp/zouwl/GaussianScr/Gau-5889.EMs"
         fchk file        "/tmp/zouwl/GaussianScr/Gau-5889.EFC"
         mat. el file     "/tmp/zouwl/GaussianScr/Gau-5889.EUF"
 ================================
 Multiple-State Spin-Mixing Model
 ================================
 Number of spin states:  2
 chi (in cm^-1): 
       400.0
 Energies of spin states:
 -----------------------------------------------
 No.              E(calc.)            E(shifted)
 -----------------------------------------------
   1        -149.417795859        -149.417795859
   2        -149.479130518        -149.479130518
 -----------------------------------------------
 Energies and weights of mixed-spin states:
 ------------------------------------------------------------------
 No.                E(mix)           Weights
 ------------------------------------------------------------------
   1        -149.479184626          0.1%    99.9%
   2        -149.417741751         99.9%     0.1%
 ------------------------------------------------------------------
 Recovered energy= -149.479184626     dipole=      0.000000000000      0.000000000000      0.000000000000
 Energy=    -149.479185     NIter=   0.
 Dipole moment=       0.000000       0.000000       0.000000
 Leave Link  402 at Mon Dec 12 09:58:16 2022, MaxMem=   134217728 cpu:               0.0 elap:              45.0
 (Enter /home/zouwl/Chemsoft/Gaussian/g16/l716.exe)
 Dipole        = 0.00000000D+00 0.00000000D+00 0.00000000D+00
 ***** Axes restored to original set *****
 -------------------------------------------------------------------
 Center     Atomic                   Forces (Hartrees/Bohr)
 Number     Number              X              Y              Z
 -------------------------------------------------------------------
      1        8          -0.000000000    0.000000000   -0.036282979
      2        8           0.000000000   -0.000000000    0.036282979
 -------------------------------------------------------------------
 Cartesian Forces:  Max     0.036282979 RMS     0.020947988
 Leave Link  716 at Mon Dec 12 09:58:16 2022, MaxMem=   134217728 cpu:               0.0 elap:               0.0
 (Enter /home/zouwl/Chemsoft/Gaussian/g16/l103.exe)

 GradGradGradGradGradGradGradGradGradGradGradGradGradGradGradGradGradGrad
 Berny optimization.
 Using GEDIIS/GDIIS optimizer.
 Red2BG is reusing G-inverse.
 Internal  Forces:  Max     0.036282979 RMS     0.036282979
 Search for a local minimum.
 Step number   2 out of a maximum of   20
 All quantities printed in internal units (Hartrees-Bohrs-Radians)
 RMS Force = .36283D-01 SwitMx=.10000D-02 MixMth= 1
 Mixed Optimization -- RFO/linear search
 Update second derivatives using D2CorX and points    1    2
 DE= -1.14D-02 DEPred=-9.53D-03 R= 1.20D+00
 TightC=F SS=  1.41D+00  RLast= 1.32D-01 DXNew= 5.0454D-01 3.9747D-01
 Trust test= 1.20D+00 RLast= 1.32D-01 DXMaxT set to 3.97D-01
 The second derivative matrix:
                          R1
           R1           0.79311
 ITU=  1  0
 Use linear search instead of GDIIS.
     Eigenvalues ---    0.79311
 RFO step:  Lambda= 0.00000000D+00 EMin= 7.93105370D-01
 Quartic linear search produced a step of  0.44104.
 Iteration  1 RMS(Cart)=  0.04131832 RMS(Int)=  0.00000000
 Iteration  2 RMS(Cart)=  0.00000000 RMS(Int)=  0.00000000
 ITry= 1 IFail=0 DXMaxC= 2.92D-02 DCOld= 1.00D+10 DXMaxT= 3.97D-01 DXLimC= 3.00D+00 Rises=F
 ClnCor:  largest displacement from symmetrization is 4.44D-16 for atom     2.
 Variable       Old X    -DE/DX   Delta X   Delta X   Delta X     New X
                                 (Linear)    (Quad)   (Total)
    R1        2.40016   0.03628   0.05843  -0.00000   0.05843   2.45859
         Item               Value     Threshold  Converged?
 Maximum Force            0.036283     0.000450     NO 
 RMS     Force            0.036283     0.000300     NO 
 Maximum Displacement     0.029216     0.001800     NO 
 RMS     Displacement     0.041318     0.001200     NO 
 Predicted change in Energy=-7.661284D-04
 GradGradGradGradGradGradGradGradGradGradGradGradGradGradGradGradGradGrad

 Leave Link  103 at Mon Dec 12 09:58:16 2022, MaxMem=   134217728 cpu:               0.0 elap:               0.1
 (Enter /home/zouwl/Chemsoft/Gaussian/g16/l202.exe)
                          Input orientation:                          
 ---------------------------------------------------------------------
 Center     Atomic      Atomic             Coordinates (Angstroms)
 Number     Number       Type             X           Y           Z
 ---------------------------------------------------------------------
      1          8           0        0.000000    0.000000   -0.050516
      2          8           0        0.000000    0.000000    1.250516
 ---------------------------------------------------------------------
 Stoichiometry    O2
 Framework group  D*H[C*(O.O)]
 Deg. of freedom     1
 Full point group                 D*H     NOp   8
 RotChk:  IX=0 Diff= 0.00D+00
 Largest Abelian subgroup         D2H     NOp   8
 Largest concise Abelian subgroup C2      NOp   2
                         Standard orientation:                         
 ---------------------------------------------------------------------
 Center     Atomic      Atomic             Coordinates (Angstroms)
 Number     Number       Type             X           Y           Z
 ---------------------------------------------------------------------
      1          8           0        0.000000    0.000000    0.650516
      2          8           0        0.000000    0.000000   -0.650516
 ---------------------------------------------------------------------
 Rotational constants (GHZ):           0.0000000          37.3326862          37.3326862
 Leave Link  202 at Mon Dec 12 09:58:16 2022, MaxMem=   134217728 cpu:               0.0 elap:               0.0
 (Enter /home/zouwl/Chemsoft/Gaussian/g16/l301.exe)
 Standard basis: STO-3G (5D, 7F)
 Ernie: Thresh=  0.10000D-02 Tol=  0.10000D-05 Strict=F.
 There are     3 symmetry adapted cartesian basis functions of AG  symmetry.
 There are     0 symmetry adapted cartesian basis functions of B1G symmetry.
 There are     1 symmetry adapted cartesian basis functions of B2G symmetry.
 There are     1 symmetry adapted cartesian basis functions of B3G symmetry.
 There are     0 symmetry adapted cartesian basis functions of AU  symmetry.
 There are     3 symmetry adapted cartesian basis functions of B1U symmetry.
 There are     1 symmetry adapted cartesian basis functions of B2U symmetry.
 There are     1 symmetry adapted cartesian basis functions of B3U symmetry.
 There are     3 symmetry adapted basis functions of AG  symmetry.
 There are     0 symmetry adapted basis functions of B1G symmetry.
 There are     1 symmetry adapted basis functions of B2G symmetry.
 There are     1 symmetry adapted basis functions of B3G symmetry.
 There are     0 symmetry adapted basis functions of AU  symmetry.
 There are     3 symmetry adapted basis functions of B1U symmetry.
 There are     1 symmetry adapted basis functions of B2U symmetry.
 There are     1 symmetry adapted basis functions of B3U symmetry.
    10 basis functions,    30 primitive gaussians,    10 cartesian basis functions
     8 alpha electrons        8 beta electrons
       nuclear repulsion energy        26.0311342983 Hartrees.
 IExCor=    0 DFT=F Ex=HF Corr=None ExCW=0 ScaHFX=  1.000000
 ScaDFX=  1.000000  1.000000  1.000000  1.000000 ScalE2=  1.000000  1.000000
 IRadAn=      5 IRanWt=     -1 IRanGd=            0 ICorTp=0 IEmpDi=  4
 NAtoms=    2 NActive=    2 NUniq=    1 SFac= 4.00D+00 NAtFMM=   60 NAOKFM=F Big=F
 Integral buffers will be    131072 words long.
 Raffenetti 1 integral format.
 Two-electron integral symmetry is turned on.
 Leave Link  301 at Mon Dec 12 09:58:16 2022, MaxMem=   134217728 cpu:               0.0 elap:               0.0
 (Enter /home/zouwl/Chemsoft/Gaussian/g16/l402.exe)
 External calculation of energy and first derivatives.
 Running external command "MultiState/run-2state.sh R"
         input file       "/tmp/zouwl/GaussianScr/Gau-5889.EIn"
         output file      "/tmp/zouwl/GaussianScr/Gau-5889.EOu"
         message file     "/tmp/zouwl/GaussianScr/Gau-5889.EMs"
         fchk file        "/tmp/zouwl/GaussianScr/Gau-5889.EFC"
         mat. el file     "/tmp/zouwl/GaussianScr/Gau-5889.EUF"
 ================================
 Multiple-State Spin-Mixing Model
 ================================
 Number of spin states:  2
 chi (in cm^-1): 
       400.0
 Energies of spin states:
 -----------------------------------------------
 No.              E(calc.)            E(shifted)
 -----------------------------------------------
   1        -149.419085438        -149.419085438
   2        -149.480170150        -149.480170150
 -----------------------------------------------
 Energies and weights of mixed-spin states:
 ------------------------------------------------------------------
 No.                E(mix)           Weights
 ------------------------------------------------------------------
   1        -149.480224479          0.1%    99.9%
   2        -149.419031108         99.9%     0.1%
 ------------------------------------------------------------------
 Recovered energy= -149.480224479     dipole=      0.000000000000      0.000000000000      0.000000000000
 Energy=    -149.480224     NIter=   0.
 Dipole moment=       0.000000       0.000000       0.000000
 Leave Link  402 at Mon Dec 12 09:59:08 2022, MaxMem=   134217728 cpu:               0.0 elap:              52.0
 (Enter /home/zouwl/Chemsoft/Gaussian/g16/l716.exe)
 Dipole        = 0.00000000D+00 0.00000000D+00 0.00000000D+00
 ***** Axes restored to original set *****
 -------------------------------------------------------------------
 Center     Atomic                   Forces (Hartrees/Bohr)
 Number     Number              X              Y              Z
 -------------------------------------------------------------------
      1        8           0.000000000   -0.000000000    0.000103994
      2        8          -0.000000000    0.000000000   -0.000103994
 -------------------------------------------------------------------
 Cartesian Forces:  Max     0.000103994 RMS     0.000060041
 Leave Link  716 at Mon Dec 12 09:59:09 2022, MaxMem=   134217728 cpu:               0.0 elap:               1.0
 (Enter /home/zouwl/Chemsoft/Gaussian/g16/l103.exe)

 GradGradGradGradGradGradGradGradGradGradGradGradGradGradGradGradGradGrad
 Berny optimization.
 Using GEDIIS/GDIIS optimizer.
 Red2BG is reusing G-inverse.
 Internal  Forces:  Max     0.000103994 RMS     0.000103994
 Search for a local minimum.
 Step number   3 out of a maximum of   20
 All quantities printed in internal units (Hartrees-Bohrs-Radians)
 RMS Force = .10399D-03 SwitMx=.10000D-02 MixMth= 2
 Mixed Optimization -- En-DIIS/RFO-DIIS
 Update second derivatives using D2CorX and points    2    3
 DE= -1.04D-03 DEPred=-7.66D-04 R= 1.36D+00
 TightC=F SS=  1.41D+00  RLast= 5.84D-02 DXNew= 6.6846D-01 1.7530D-01
 Trust test= 1.36D+00 RLast= 5.84D-02 DXMaxT set to 3.97D-01
 The second derivative matrix:
                          R1
           R1           0.62271
 ITU=  1  1
 Use linear search instead of GDIIS.
     Eigenvalues ---    0.62271
 RFO step:  Lambda= 0.00000000D+00 EMin= 6.22713446D-01
 Quartic linear search produced a step of -0.00300.
 Iteration  1 RMS(Cart)=  0.00012403 RMS(Int)=  0.00000000
 Iteration  2 RMS(Cart)=  0.00000000 RMS(Int)=  0.00000000
 ITry= 1 IFail=0 DXMaxC= 8.77D-05 DCOld= 1.00D+10 DXMaxT= 3.97D-01 DXLimC= 3.00D+00 Rises=F
 ClnCor:  largest displacement from symmetrization is 5.37D-21 for atom     1.
 Variable       Old X    -DE/DX   Delta X   Delta X   Delta X     New X
                                 (Linear)    (Quad)   (Total)
    R1        2.45859  -0.00010  -0.00018  -0.00000  -0.00018   2.45842
         Item               Value     Threshold  Converged?
 Maximum Force            0.000104     0.000450     YES
 RMS     Force            0.000104     0.000300     YES
 Maximum Displacement     0.000088     0.001800     YES
 RMS     Displacement     0.000124     0.001200     YES
 Predicted change in Energy=-8.661500D-09
 Optimization completed.
    -- Stationary point found.
                           ----------------------------
                           !   Optimized Parameters   !
                           ! (Angstroms and Degrees)  !
 --------------------------                            --------------------------
 ! Name  Definition              Value          Derivative Info.                !
 --------------------------------------------------------------------------------
 ! R1    R(1,2)                  1.301          -DE/DX =   -0.0001              !
 --------------------------------------------------------------------------------
 Largest change from initial coordinates is atom    1       0.051 Angstoms.
 GradGradGradGradGradGradGradGradGradGradGradGradGradGradGradGradGradGrad

 Leave Link  103 at Mon Dec 12 09:59:09 2022, MaxMem=   134217728 cpu:               0.0 elap:               0.2
 (Enter /home/zouwl/Chemsoft/Gaussian/g16/l202.exe)
                          Input orientation:                          
 ---------------------------------------------------------------------
 Center     Atomic      Atomic             Coordinates (Angstroms)
 Number     Number       Type             X           Y           Z
 ---------------------------------------------------------------------
      1          8           0        0.000000    0.000000   -0.050516
      2          8           0        0.000000    0.000000    1.250516
 ---------------------------------------------------------------------
 Stoichiometry    O2
 Framework group  D*H[C*(O.O)]
 Deg. of freedom     1
 Full point group                 D*H     NOp   8
 RotChk:  IX=0 Diff= 0.00D+00
 Largest Abelian subgroup         D2H     NOp   8
 Largest concise Abelian subgroup C2      NOp   2
                         Standard orientation:                         
 ---------------------------------------------------------------------
 Center     Atomic      Atomic             Coordinates (Angstroms)
 Number     Number       Type             X           Y           Z
 ---------------------------------------------------------------------
      1          8           0        0.000000    0.000000    0.650516
      2          8           0        0.000000    0.000000   -0.650516
 ---------------------------------------------------------------------
 Rotational constants (GHZ):           0.0000000          37.3326862          37.3326862
 Leave Link  202 at Mon Dec 12 09:59:10 2022, MaxMem=   134217728 cpu:               0.0 elap:               0.2
 (Enter /home/zouwl/Chemsoft/Gaussian/g16/l601.exe)
 Leave Link  601 at Mon Dec 12 09:59:10 2022, MaxMem=   134217728 cpu:               0.0 elap:               0.1
 (Enter /home/zouwl/Chemsoft/Gaussian/g16/l9999.exe)
 B after Tr=    -0.000000    0.000000    0.000000
         Rot=    1.000000    0.000000    0.000000    0.000000 Ang=   0.00 deg.
 Final structure in terms of initial Z-matrix:
 O
 O,1,r1
      Variables:
 r1=1.30103211
 Unable to Open any file for archive entry.
 1\1\GINC-SU06\FOpt\External='MultiState/run-2state.sh'\ZDO\O2\ZOUWL\12
 -Dec-2022\0\\#p external='MultiState/run-2state.sh' opt(nomicro) freq\
 \Two-State calculation (DO SP FIRST.)\\0,1\O,0.,0.,-0.0505160534\O,0.,
 0.,1.2505160534\\Version=ES64L-G16RevC.01\HF=-149.4802245\RMSD=0.000e+
 00\RMSF=6.004e-05\Dipole=0.,0.,0.\PG=D*H [C*(O1.O1)]\\@
 The archive entry for this job was punched.


 MISERY NO LONGER LOVES COMPANY.  NOWADAYS IT INSISTS ON IT.

                                              -- BAKER'S LAW
 Leave Link 9999 at Mon Dec 12 09:59:10 2022, MaxMem=   134217728 cpu:               0.0 elap:               0.0
 Job cpu time:       0 days  0 hours  0 minutes  0.9 seconds.
 Elapsed time:       0 days  0 hours  2 minutes 32.0 seconds.
 File lengths (MBytes):  RWF=      6 Int=      0 D2E=      0 Chk=      1 Scr=      1
 Normal termination of Gaussian 16 at Mon Dec 12 09:59:10 2022.
 (Enter /home/zouwl/Chemsoft/Gaussian/g16/l1.exe)
 Link1:  Proceeding to internal job step number  2.
 ----------------------------------------------------------------------
 #P Geom=AllCheck Guess=TCheck SCRF=Check GenChk External='MultiState/r
 un-2state.sh'/ZDO Freq
 ----------------------------------------------------------------------
 1/10=4,18=10,29=7,30=1,38=1,40=1/1,3;
 2/12=2,40=1/2;
 3/11=9,14=-4,25=1,30=1,41=9900000,43=2,70=40000002,71=2,116=-2,140=1/1;
 4/20=17,22=2,24=3,113=1,114=1/2;
 6/7=2,8=2,9=2,10=2/1;
 7/8=1,25=1,44=-1/16;
 1/10=4,18=10,30=1/3;
 99//99;
 Leave Link    1 at Mon Dec 12 09:59:12 2022, MaxMem=   134217728 cpu:               0.0 elap:               0.1
 (Enter /home/zouwl/Chemsoft/Gaussian/g16/l101.exe)
 Structure from the checkpoint file:  "/tmp/zouwl/GaussianScr/Gau-5889.chk"
 ------------------------------------
 Two-State calculation (DO SP FIRST.)
 ------------------------------------
 Charge =  0 Multiplicity = 1
 Redundant internal coordinates found in file.  (old form).
 O,0,0.,0.,-0.0505160534
 O,0,0.,0.,1.2505160534
 Recover connectivity data from disk.
 ITRead=  0  0
 MicOpt= -1 -1
 NAtoms=      2 NQM=        2 NQMF=       0 NMMI=      0 NMMIF=      0
                NMic=       0 NMicF=      0.
                    Isotopes and Nuclear Properties:
 (Nuclear quadrupole moments (NQMom) in fm**2, nuclear magnetic moments (NMagM)
  in nuclear magnetons)

  Atom         1           2
 IAtWgt=          16          16
 AtmWgt=  15.9949146  15.9949146
 NucSpn=           0           0
 AtZEff=   5.6000000   5.6000000
 NQMom=    0.0000000   0.0000000
 NMagM=    0.0000000   0.0000000
 AtZNuc=   8.0000000   8.0000000
 Leave Link  101 at Mon Dec 12 09:59:15 2022, MaxMem=   134217728 cpu:               0.1 elap:               2.3
 (Enter /home/zouwl/Chemsoft/Gaussian/g16/l103.exe)

 GradGradGradGradGradGradGradGradGradGradGradGradGradGradGradGradGradGrad
 Berny optimization.
 Initialization pass.
 Trust Radius=3.00D-01 FncErr=1.00D-07 GrdErr=1.00D-07 EigMax=2.50D+02 EigMin=1.00D-04
 Number of steps in this run=      2 maximum allowed number of steps=      2.
 GradGradGradGradGradGradGradGradGradGradGradGradGradGradGradGradGradGrad

 Leave Link  103 at Mon Dec 12 09:59:16 2022, MaxMem=   134217728 cpu:               0.0 elap:               1.2
 (Enter /home/zouwl/Chemsoft/Gaussian/g16/l202.exe)
                          Input orientation:                          
 ---------------------------------------------------------------------
 Center     Atomic      Atomic             Coordinates (Angstroms)
 Number     Number       Type             X           Y           Z
 ---------------------------------------------------------------------
      1          8           0        0.000000    0.000000   -0.050516
      2          8           0        0.000000    0.000000    1.250516
 ---------------------------------------------------------------------
 Stoichiometry    O2
 Framework group  D*H[C*(O.O)]
 Deg. of freedom     1
 Full point group                 D*H     NOp   8
 RotChk:  IX=0 Diff= 0.00D+00
 Largest Abelian subgroup         D2H     NOp   8
 Largest concise Abelian subgroup C2      NOp   2
                         Standard orientation:                         
 ---------------------------------------------------------------------
 Center     Atomic      Atomic             Coordinates (Angstroms)
 Number     Number       Type             X           Y           Z
 ---------------------------------------------------------------------
      1          8           0        0.000000    0.000000    0.650516
      2          8           0        0.000000    0.000000   -0.650516
 ---------------------------------------------------------------------
 Rotational constants (GHZ):           0.0000000          37.3326862          37.3326862
 Leave Link  202 at Mon Dec 12 09:59:17 2022, MaxMem=   134217728 cpu:               0.0 elap:               1.3
 (Enter /home/zouwl/Chemsoft/Gaussian/g16/l301.exe)
 Standard basis: STO-3G (5D, 7F)
 Ernie: Thresh=  0.10000D-02 Tol=  0.10000D-05 Strict=F.
 There are     3 symmetry adapted cartesian basis functions of AG  symmetry.
 There are     0 symmetry adapted cartesian basis functions of B1G symmetry.
 There are     1 symmetry adapted cartesian basis functions of B2G symmetry.
 There are     1 symmetry adapted cartesian basis functions of B3G symmetry.
 There are     0 symmetry adapted cartesian basis functions of AU  symmetry.
 There are     3 symmetry adapted cartesian basis functions of B1U symmetry.
 There are     1 symmetry adapted cartesian basis functions of B2U symmetry.
 There are     1 symmetry adapted cartesian basis functions of B3U symmetry.
 There are     3 symmetry adapted basis functions of AG  symmetry.
 There are     0 symmetry adapted basis functions of B1G symmetry.
 There are     1 symmetry adapted basis functions of B2G symmetry.
 There are     1 symmetry adapted basis functions of B3G symmetry.
 There are     0 symmetry adapted basis functions of AU  symmetry.
 There are     3 symmetry adapted basis functions of B1U symmetry.
 There are     1 symmetry adapted basis functions of B2U symmetry.
 There are     1 symmetry adapted basis functions of B3U symmetry.
    10 basis functions,    30 primitive gaussians,    10 cartesian basis functions
     8 alpha electrons        8 beta electrons
       nuclear repulsion energy        26.0311342983 Hartrees.
 IExCor=    0 DFT=F Ex=HF Corr=None ExCW=0 ScaHFX=  1.000000
 ScaDFX=  1.000000  1.000000  1.000000  1.000000 ScalE2=  1.000000  1.000000
 IRadAn=      5 IRanWt=     -1 IRanGd=            0 ICorTp=0 IEmpDi=  4
 NAtoms=    2 NActive=    2 NUniq=    1 SFac= 4.00D+00 NAtFMM=   60 NAOKFM=F Big=F
 Integral buffers will be    131072 words long.
 Raffenetti 1 integral format.
 Two-electron integral symmetry is turned on.
 Leave Link  301 at Mon Dec 12 09:59:17 2022, MaxMem=   134217728 cpu:               0.0 elap:               0.0
 (Enter /home/zouwl/Chemsoft/Gaussian/g16/l402.exe)
 External calculation of energy, first and second derivatives.
 Running external command "MultiState/run-2state.sh R"
         input file       "/tmp/zouwl/GaussianScr/Gau-5889.EIn"
         output file      "/tmp/zouwl/GaussianScr/Gau-5889.EOu"
         message file     "/tmp/zouwl/GaussianScr/Gau-5889.EMs"
         fchk file        "/tmp/zouwl/GaussianScr/Gau-5889.EFC"
         mat. el file     "/tmp/zouwl/GaussianScr/Gau-5889.EUF"
 ================================
 Multiple-State Spin-Mixing Model
 ================================
 Number of spin states:  2
 chi (in cm^-1): 
       400.0
 Energies of spin states:
 -----------------------------------------------
 No.              E(calc.)            E(shifted)
 -----------------------------------------------
   1        -149.419085438        -149.419085438
   2        -149.480170149        -149.480170149
 -----------------------------------------------
 Energies and weights of mixed-spin states:
 ------------------------------------------------------------------
 No.                E(mix)           Weights
 ------------------------------------------------------------------
   1        -149.480224478          0.1%    99.9%
   2        -149.419031108         99.9%     0.1%
 ------------------------------------------------------------------
 Recovered energy= -149.480224478     dipole=      0.000000000000      0.000000000000      0.000000000000
 Energy=    -149.480224     NIter=   0.
 Dipole moment=       0.000000       0.000000       0.000000
 Leave Link  402 at Mon Dec 12 10:00:05 2022, MaxMem=   134217728 cpu:               0.0 elap:              47.3
 (Enter /home/zouwl/Chemsoft/Gaussian/g16/l601.exe)
 Leave Link  601 at Mon Dec 12 10:00:06 2022, MaxMem=   134217728 cpu:               0.0 elap:               1.4
 (Enter /home/zouwl/Chemsoft/Gaussian/g16/l716.exe)
 Dipole        = 0.00000000D+00 0.00000000D+00 0.00000000D+00
 Full mass-weighted force constant matrix:
 Low frequencies ---   -0.0011   -0.0000    0.0010   13.0175   16.6881 1382.5403
 Diagonal vibrational polarizability:
        0.0000000       0.0000000       0.0000000
 Harmonic frequencies (cm**-1), IR intensities (KM/Mole), Raman scattering
 activities (A**4/AMU), depolarization ratios for plane and unpolarized
 incident light, reduced masses (AMU), force constants (mDyne/A),
 and normal coordinates:
                      1
                     SGG
 Frequencies --   1382.5403
 Red. masses --     15.9949
 Frc consts  --     18.0131
 IR Inten    --      0.0000
  Atom  AN      X      Y      Z
     1   8    -0.00   0.00   0.71
     2   8     0.00   0.00  -0.71

 -------------------
 - Thermochemistry -
 -------------------
 Temperature   298.150 Kelvin.  Pressure   1.00000 Atm.
 Atom     1 has atomic number  8 and mass  15.99491
 Atom     2 has atomic number  8 and mass  15.99491
 Molecular mass:    31.98983 amu.
 Principal axes and moments of inertia in atomic units:
                           1         2         3
     Eigenvalues --     0.00000  48.34212  48.34212
           X           -0.00000   1.00000  -0.00000
           Y            0.00000   0.00000   1.00000
           Z            1.00000   0.00000  -0.00000
 This molecule is a prolate symmetric top.
 Rotational symmetry number  2.
 Rotational temperature (Kelvin)      1.79169
 Rotational constant (GHZ):          37.332686
 Zero-point vibrational energy       8269.4 (Joules/Mol)
                                    1.97644 (Kcal/Mol)
 Vibrational temperatures:   1989.17
          (Kelvin)
 
 Zero-point correction=                           0.003150 (Hartree/Particle)
 Thermal correction to Energy=                    0.005518
 Thermal correction to Enthalpy=                  0.006462
 Thermal correction to Gibbs Free Energy=        -0.015923
 Sum of electronic and zero-point Energies=           -149.477075
 Sum of electronic and thermal Energies=              -149.474706
 Sum of electronic and thermal Enthalpies=            -149.473762
 Sum of electronic and thermal Free Energies=         -149.496147
 
                     E (Thermal)             CV                S
                      KCal/Mol        Cal/Mol-Kelvin    Cal/Mol-Kelvin
 Total                    3.463              5.080             47.113
 Electronic               0.000              0.000              0.000
 Translational            0.889              2.981             36.321
 Rotational               0.592              1.987             10.773
 Vibrational              1.981              0.112              0.019
                       Q            Log10(Q)             Ln(Q)
 Total Bot       0.210826D+08          7.323924         16.863958
 Total V=0       0.592468D+09          8.772665         20.199807
 Vib (Bot)       0.356295D-01         -1.448191         -3.334583
 Vib (V=0)       0.100127D+01          0.000550          0.001267
 Electronic      0.100000D+01          0.000000          0.000000
 Translational   0.711167D+07          6.851972         15.777248
 Rotational      0.832037D+02          1.920143          4.421292
 ***** Axes restored to original set *****
 -------------------------------------------------------------------
 Center     Atomic                   Forces (Hartrees/Bohr)
 Number     Number              X              Y              Z
 -------------------------------------------------------------------
      1        8           0.000000000    0.000000000    0.000103992
      2        8          -0.000000000   -0.000000000   -0.000103992
 -------------------------------------------------------------------
 Cartesian Forces:  Max     0.000103992 RMS     0.000060040
 Force constants in Cartesian coordinates: 
                1             2             3             4             5 
      1  0.512862D-04
      2  0.000000D+00  0.842867D-04
      3  0.000000D+00  0.000000D+00  0.578494D+00
      4 -0.512862D-04  0.000000D+00  0.000000D+00  0.512862D-04
      5  0.000000D+00 -0.842867D-04  0.000000D+00  0.000000D+00  0.842867D-04
      6  0.000000D+00  0.000000D+00 -0.578494D+00  0.000000D+00  0.000000D+00
                6 
      6  0.578494D+00
 Leave Link  716 at Mon Dec 12 10:00:06 2022, MaxMem=   134217728 cpu:               0.0 elap:               0.0
 (Enter /home/zouwl/Chemsoft/Gaussian/g16/l103.exe)

 GradGradGradGradGradGradGradGradGradGradGradGradGradGradGradGradGradGrad
 Berny optimization.
 Search for a local minimum.
 Step number   1 out of a maximum of    2
 All quantities printed in internal units (Hartrees-Bohrs-Radians)
 Second derivative matrix not updated -- analytic derivatives used.
 The second derivative matrix:
                          X1        Y1        Z1        X2        Y2
           X1           0.00005
           Y1          -0.00000   0.00008
           Z1          -0.00000   0.00000   0.57849
           X2          -0.00005   0.00000   0.00000   0.00005
           Y2           0.00000  -0.00008  -0.00000  -0.00000   0.00008
           Z2           0.00000  -0.00000  -0.57849  -0.00000   0.00000
                          Z2
           Z2           0.57849
 ITU=  0
     Eigenvalues ---    1.15699
 Angle between quadratic step and forces=   0.00 degrees.
 ClnCor:  largest displacement from symmetrization is 2.77D-20 for atom     2.
 Linear search not attempted -- first point.
 ClnCor:  largest displacement from symmetrization is 6.94D-17 for atom     1.
 B after Tr=     0.000000    0.000000    0.000000
         Rot=    1.000000    0.000000    0.000000    0.000000 Ang=   0.00 deg.
 Variable       Old X    -DE/DX   Delta X   Delta X   Delta X     New X
                                 (Linear)    (Quad)   (Total)
    X1        0.00000   0.00000   0.00000   0.00000   0.00000   0.00000
    Y1        0.00000   0.00000   0.00000   0.00000   0.00000   0.00000
    Z1       -0.09546   0.00010   0.00000   0.00009   0.00009  -0.09537
    X2        0.00000  -0.00000   0.00000  -0.00000  -0.00000   0.00000
    Y2        0.00000  -0.00000   0.00000   0.00000   0.00000   0.00000
    Z2        2.36313  -0.00010   0.00000  -0.00009  -0.00009   2.36304
         Item               Value     Threshold  Converged?
 Maximum Force            0.000104     0.000450     YES
 RMS     Force            0.000060     0.000300     YES
 Maximum Displacement     0.000090     0.001800     YES
 RMS     Displacement     0.000052     0.001200     YES
 Predicted change in Energy=-9.347037D-09
 Optimization completed.
    -- Stationary point found.
 GradGradGradGradGradGradGradGradGradGradGradGradGradGradGradGradGradGrad

 Leave Link  103 at Mon Dec 12 10:00:07 2022, MaxMem=   134217728 cpu:               0.0 elap:               1.1
 (Enter /home/zouwl/Chemsoft/Gaussian/g16/l9999.exe)
 Unable to Open any file for archive entry.
 1\1\GINC-SU06\Freq\External='MultiState/run-2state.sh'\ZDO\O2\ZOUWL\12
 -Dec-2022\0\\#P Geom=AllCheck Guess=TCheck SCRF=Check GenChk External=
 'MultiState/run-2state.sh'/ZDO Freq\\Two-State calculation (DO SP FIRS
 T.)\\0,1\O,0.,0.,-0.0505160534\O,0.,0.,1.2505160534\\Version=ES64L-G16
 RevC.01\HF=-149.4802245\RMSD=0.000e+00\RMSF=6.004e-05\ZeroPoint=0.0031
 497\Thermal=0.0055181\ETot=-149.4747064\HTot=-149.4737622\GTot=-149.49
 61472\Dipole=0.,0.,0.\PG=D*H [C*(O1.O1)]\NImag=0\\0.00005129,0.,0.0000
 8429,0.,0.,0.57849417,-0.00005129,0.,0.,0.00005129,0.,-0.00008429,0.,0
 .,0.00008429,0.,0.,-0.57849417,0.,0.,0.57849417\\0.,0.,-0.00010399,0.,
 0.,0.00010399\\\@
 The archive entry for this job was punched.


 LIFE IS A CONTINUAL STRUGGLE AGAINST THE TENDENCY TO PRODUCE ENTROPY.
 Job cpu time:       0 days  0 hours  0 minutes  0.4 seconds.
 Elapsed time:       0 days  0 hours  0 minutes 55.9 seconds.
 File lengths (MBytes):  RWF=      6 Int=      0 D2E=      0 Chk=      1 Scr=      1
 Normal termination of Gaussian 16 at Mon Dec 12 10:00:08 2022.
